HEADER
"PSFversion" "1.00"
"outv" "out"
"in2v" "in2"
"in1v" "in1"
"net11v" "net11"
"vdd!v" "VDD!"
"0v" "GND!"
