HEADER
"PSFversion" "1.00"
"Dv" ":d"
"Gv" ":g"
"Sv" ":s"
"Bv" ":b"
