HEADER
"PSFversion" "1.00"
":dv" "D"
":gv" "G"
":sv" "S"
":bv" "B"
