HEADER
"PSFversion" "1.00"
"inv" "in"
"outv" "out"
