HEADER
"PSFversion" "1.00"
"m0v" "+9"
"m0n" "gpdk090_pmos1v_hspiceD"
"m1v" "+8"
"m1n" "gpdk090_pmos1v_hspiceD"
"m2v" "+7"
"m2n" "gpdk090_pmos1v_hspiceD"
"m3v" "+6"
"m3n" "gpdk090_pmos1v_hspiceD"
"m4v" "+5"
"m4n" "gpdk090_pmos1v_hspiceD"
"m5v" "+4"
"m5n" "gpdk090_nmos1v_hspiceD"
"m6v" "+3"
"m6n" "gpdk090_nmos1v_hspiceD"
"m7v" "+2"
"m7n" "gpdk090_nmos1v_hspiceD"
"m8v" "+1"
"m8n" "gpdk090_nmos1v_hspiceD"
"m9v" "+0"
"m9n" "gpdk090_nmos1v_hspiceD"
