HEADER
"PSFversion" "1.00"
"n1v" "1"
"n2v" "2"
"n3v" "3"
"n4v" "4"
"n5v" "5"
"n6v" "6"
"n7v" "7"
