HEADER
"PSFversion" "1.00"
"1v" "n1"
"2v" "n2"
"3v" "n3"
"4v" "n4"
"5v" "n5"
"6v" "n6"
"7v" "n7"
