HEADER
"PSFversion" "1.00"
"+9v" "m0"
"+9n" "gpdk090_pmos1v_hspiceD"
"+8v" "m1"
"+8n" "gpdk090_pmos1v_hspiceD"
"+7v" "m2"
"+7n" "gpdk090_pmos1v_hspiceD"
"+6v" "m3"
"+6n" "gpdk090_pmos1v_hspiceD"
"+5v" "m4"
"+5n" "gpdk090_pmos1v_hspiceD"
"+4v" "m5"
"+4n" "gpdk090_nmos1v_hspiceD"
"+3v" "m6"
"+3n" "gpdk090_nmos1v_hspiceD"
"+2v" "m7"
"+2n" "gpdk090_nmos1v_hspiceD"
"+1v" "m8"
"+1n" "gpdk090_nmos1v_hspiceD"
"+0v" "m9"
"+0n" "gpdk090_nmos1v_hspiceD"
