HEADER
"PSFversion" "1.00"
"2:BL0v" "n2__bl0"
"1:BL0v" "n1__bl0"
"3:I0|net12v" "n3__i0__net12"
"6:I0|net12v" "n6__i0__net12"
"4:I0|net18v" "n4__i0__net18"
"8:I0|net18v" "n8__i0__net18"
"2:BLB0v" "n2__blb0"
"1:BLB0v" "n1__blb0"
"2:BL1v" "n2__bl1"
"1:BL1v" "n1__bl1"
"3:I1|net12v" "n3__i1__net12"
"6:I1|net12v" "n6__i1__net12"
"4:I1|net18v" "n4__i1__net18"
"8:I1|net18v" "n8__i1__net18"
"2:BLB1v" "n2__blb1"
"1:BLB1v" "n1__blb1"
"2:BL2v" "n2__bl2"
"1:BL2v" "n1__bl2"
"3:I2|net12v" "n3__i2__net12"
"6:I2|net12v" "n6__i2__net12"
"4:I2|net18v" "n4__i2__net18"
"8:I2|net18v" "n8__i2__net18"
"2:BLB2v" "n2__blb2"
"1:BLB2v" "n1__blb2"
"2:BL3v" "n2__bl3"
"1:BL3v" "n1__bl3"
"3:I3|net12v" "n3__i3__net12"
"6:I3|net12v" "n6__i3__net12"
"4:I3|net18v" "n4__i3__net18"
"8:I3|net18v" "n8__i3__net18"
"2:BLB3v" "n2__blb3"
"1:BLB3v" "n1__blb3"
"6:VDD!v" "n6__vdd!"
"9:VDD!v" "n9__vdd!"
"15:VDD!v" "n15__vdd!"
"1:VDD!v" "n1__vdd!"
"5:VDD!v" "n5__vdd!"
"8:VDD!v" "n8__vdd!"
"11:VDD!v" "n11__vdd!"
"14:VDD!v" "n14__vdd!"
"16:VDD!v" "n16__vdd!"
"19:VDD!v" "n19__vdd!"
"22:VDD!v" "n22__vdd!"
"6:GND!v" "n6__gnd!"
"8:GND!v" "n8__gnd!"
"10:GND!v" "n10__gnd!"
"12:GND!v" "n12__gnd!"
"2:GND!v" "n2__gnd!"
"1:GND!v" "n1__gnd!"
"5:GND!v" "n5__gnd!"
"7:GND!v" "n7__gnd!"
"9:GND!v" "n9__gnd!"
"11:GND!v" "n11__gnd!"
"4:GND!v" "n4__gnd!"
"14:GND!v" "n14__gnd!"
"13:GND!v" "n13__gnd!"
"17:GND!v" "n17__gnd!"
"16:GND!v" "n16__gnd!"
"20:GND!v" "n20__gnd!"
"19:GND!v" "n19__gnd!"
"I0|net12v" "i0__net12"
"I0|net18v" "i0__net18"
"I3|net12v" "i3__net12"
"I3|net18v" "i3__net18"
"I2|net12v" "i2__net12"
"I2|net18v" "i2__net18"
"I1|net12v" "i1__net12"
"I1|net18v" "i1__net18"
"3:I0|net18v" "n3__i0__net18"
"9:I0|net12v" "n9__i0__net12"
"3:I1|net18v" "n3__i1__net18"
"9:I1|net12v" "n9__i1__net12"
"3:I2|net18v" "n3__i2__net18"
"9:I2|net12v" "n9__i2__net12"
"3:I3|net18v" "n3__i3__net18"
"9:I3|net12v" "n9__i3__net12"
"3:WLv" "n3__wl"
"10:I0|net12v" "n10__i0__net12"
"6:WLv" "n6__wl"
"9:WLv" "n9__wl"
"10:I1|net12v" "n10__i1__net12"
"12:WLv" "n12__wl"
"15:WLv" "n15__wl"
"10:I2|net12v" "n10__i2__net12"
"18:WLv" "n18__wl"
"21:WLv" "n21__wl"
"10:I3|net12v" "n10__i3__net12"
"22:WLv" "n22__wl"
"5:BL0v" "n5__bl0"
"6:BLB0v" "n6__blb0"
"5:BL1v" "n5__bl1"
"6:BLB1v" "n6__blb1"
"5:BL2v" "n5__bl2"
"5:BLB2v" "n5__blb2"
"5:BL3v" "n5__bl3"
"5:BLB3v" "n5__blb3"
"1:WLv" "n1__wl"
"2:I0|net18v" "n2__i0__net18"
"4:WLv" "n4__wl"
"7:WLv" "n7__wl"
"2:I1|net18v" "n2__i1__net18"
"10:WLv" "n10__wl"
"13:WLv" "n13__wl"
"2:I2|net18v" "n2__i2__net18"
"16:WLv" "n16__wl"
"19:WLv" "n19__wl"
"2:I3|net18v" "n2__i3__net18"
"23:WLv" "n23__wl"
"4:BL0v" "n4__bl0"
"2:WLv" "n2__wl"
"5:WLv" "n5__wl"
"4:BLB0v" "n4__blb0"
"4:BL1v" "n4__bl1"
"8:WLv" "n8__wl"
"11:WLv" "n11__wl"
"4:BLB1v" "n4__blb1"
"4:BL2v" "n4__bl2"
"14:WLv" "n14__wl"
"17:WLv" "n17__wl"
"4:BLB2v" "n4__blb2"
"4:BL3v" "n4__bl3"
"20:WLv" "n20__wl"
"24:WLv" "n24__wl"
"4:BLB3v" "n4__blb3"
"13:VDD!v" "n13__vdd!"
"10:VDD!v" "n10__vdd!"
"7:VDD!v" "n7__vdd!"
"4:VDD!v" "n4__vdd!"
"6:BL0v" "n6__bl0"
"5:BLB0v" "n5__blb0"
"5:BLB1v" "n5__blb1"
"6:BL2v" "n6__bl2"
"28:WLv" "n28__wl"
"27:WLv" "n27__wl"
"26:WLv" "n26__wl"
"25:WLv" "n25__wl"
"12:VDD!v" "n12__vdd!"
"2:I0|net12v" "n2__i0__net12"
"4:I0|net12v" "n4__i0__net12"
"7:I0|net12v" "n7__i0__net12"
"5:I0|net18v" "n5__i0__net18"
"7:I0|net18v" "n7__i0__net18"
"9:I0|net18v" "n9__i0__net18"
"2:I1|net12v" "n2__i1__net12"
"4:I1|net12v" "n4__i1__net12"
"7:I1|net12v" "n7__i1__net12"
"5:I1|net18v" "n5__i1__net18"
"7:I1|net18v" "n7__i1__net18"
"9:I1|net18v" "n9__i1__net18"
"2:I2|net12v" "n2__i2__net12"
"4:I2|net12v" "n4__i2__net12"
"7:I2|net12v" "n7__i2__net12"
"5:I2|net18v" "n5__i2__net18"
"7:I2|net18v" "n7__i2__net18"
"9:I2|net18v" "n9__i2__net18"
"2:I3|net12v" "n2__i3__net12"
"4:I3|net12v" "n4__i3__net12"
"7:I3|net12v" "n7__i3__net12"
"5:I3|net18v" "n5__i3__net18"
"7:I3|net18v" "n7__i3__net18"
"9:I3|net18v" "n9__i3__net18"
"2:VDD!v" "n2__vdd!"
"17:VDD!v" "n17__vdd!"
"20:VDD!v" "n20__vdd!"
"23:VDD!v" "n23__vdd!"
"WLv" "wl"
"BL0v" "bl0"
"BLB0v" "blb0"
"BL1v" "bl1"
"BLB1v" "blb1"
"BL2v" "bl2"
"BLB2v" "blb2"
"BL3v" "bl3"
"BLB3v" "blb3"
