HEADER
"PSFversion" "1.00"
"n2__bl0v" "2:BL0"
"n1__bl0v" "1:BL0"
"n3__i0__net12v" "3:I0|net12"
"n6__i0__net12v" "6:I0|net12"
"n4__i0__net18v" "4:I0|net18"
"n8__i0__net18v" "8:I0|net18"
"n2__blb0v" "2:BLB0"
"n1__blb0v" "1:BLB0"
"n2__bl1v" "2:BL1"
"n1__bl1v" "1:BL1"
"n3__i1__net12v" "3:I1|net12"
"n6__i1__net12v" "6:I1|net12"
"n4__i1__net18v" "4:I1|net18"
"n8__i1__net18v" "8:I1|net18"
"n2__blb1v" "2:BLB1"
"n1__blb1v" "1:BLB1"
"n2__bl2v" "2:BL2"
"n1__bl2v" "1:BL2"
"n3__i2__net12v" "3:I2|net12"
"n6__i2__net12v" "6:I2|net12"
"n4__i2__net18v" "4:I2|net18"
"n8__i2__net18v" "8:I2|net18"
"n2__blb2v" "2:BLB2"
"n1__blb2v" "1:BLB2"
"n2__bl3v" "2:BL3"
"n1__bl3v" "1:BL3"
"n3__i3__net12v" "3:I3|net12"
"n6__i3__net12v" "6:I3|net12"
"n4__i3__net18v" "4:I3|net18"
"n8__i3__net18v" "8:I3|net18"
"n2__blb3v" "2:BLB3"
"n1__blb3v" "1:BLB3"
"n6__vdd!v" "6:VDD!"
"n9__vdd!v" "9:VDD!"
"n15__vdd!v" "15:VDD!"
"n1__vdd!v" "1:VDD!"
"n5__vdd!v" "5:VDD!"
"n8__vdd!v" "8:VDD!"
"n11__vdd!v" "11:VDD!"
"n14__vdd!v" "14:VDD!"
"n16__vdd!v" "16:VDD!"
"n19__vdd!v" "19:VDD!"
"n22__vdd!v" "22:VDD!"
"n6__gnd!v" "6:GND!"
"n8__gnd!v" "8:GND!"
"n10__gnd!v" "10:GND!"
"n12__gnd!v" "12:GND!"
"n2__gnd!v" "2:GND!"
"n1__gnd!v" "1:GND!"
"n5__gnd!v" "5:GND!"
"n7__gnd!v" "7:GND!"
"n9__gnd!v" "9:GND!"
"n11__gnd!v" "11:GND!"
"n4__gnd!v" "4:GND!"
"n14__gnd!v" "14:GND!"
"n13__gnd!v" "13:GND!"
"n17__gnd!v" "17:GND!"
"n16__gnd!v" "16:GND!"
"n20__gnd!v" "20:GND!"
"n19__gnd!v" "19:GND!"
"i0__net12v" "I0|net12"
"i0__net18v" "I0|net18"
"i3__net12v" "I3|net12"
"i3__net18v" "I3|net18"
"i2__net12v" "I2|net12"
"i2__net18v" "I2|net18"
"i1__net12v" "I1|net12"
"i1__net18v" "I1|net18"
"n3__i0__net18v" "3:I0|net18"
"n9__i0__net12v" "9:I0|net12"
"n3__i1__net18v" "3:I1|net18"
"n9__i1__net12v" "9:I1|net12"
"n3__i2__net18v" "3:I2|net18"
"n9__i2__net12v" "9:I2|net12"
"n3__i3__net18v" "3:I3|net18"
"n9__i3__net12v" "9:I3|net12"
"n3__wlv" "3:WL"
"n10__i0__net12v" "10:I0|net12"
"n6__wlv" "6:WL"
"n9__wlv" "9:WL"
"n10__i1__net12v" "10:I1|net12"
"n12__wlv" "12:WL"
"n15__wlv" "15:WL"
"n10__i2__net12v" "10:I2|net12"
"n18__wlv" "18:WL"
"n21__wlv" "21:WL"
"n10__i3__net12v" "10:I3|net12"
"n22__wlv" "22:WL"
"n5__bl0v" "5:BL0"
"n6__blb0v" "6:BLB0"
"n5__bl1v" "5:BL1"
"n6__blb1v" "6:BLB1"
"n5__bl2v" "5:BL2"
"n5__blb2v" "5:BLB2"
"n5__bl3v" "5:BL3"
"n5__blb3v" "5:BLB3"
"n1__wlv" "1:WL"
"n2__i0__net18v" "2:I0|net18"
"n4__wlv" "4:WL"
"n7__wlv" "7:WL"
"n2__i1__net18v" "2:I1|net18"
"n10__wlv" "10:WL"
"n13__wlv" "13:WL"
"n2__i2__net18v" "2:I2|net18"
"n16__wlv" "16:WL"
"n19__wlv" "19:WL"
"n2__i3__net18v" "2:I3|net18"
"n23__wlv" "23:WL"
"n4__bl0v" "4:BL0"
"n2__wlv" "2:WL"
"n5__wlv" "5:WL"
"n4__blb0v" "4:BLB0"
"n4__bl1v" "4:BL1"
"n8__wlv" "8:WL"
"n11__wlv" "11:WL"
"n4__blb1v" "4:BLB1"
"n4__bl2v" "4:BL2"
"n14__wlv" "14:WL"
"n17__wlv" "17:WL"
"n4__blb2v" "4:BLB2"
"n4__bl3v" "4:BL3"
"n20__wlv" "20:WL"
"n24__wlv" "24:WL"
"n4__blb3v" "4:BLB3"
"n13__vdd!v" "13:VDD!"
"n10__vdd!v" "10:VDD!"
"n7__vdd!v" "7:VDD!"
"n4__vdd!v" "4:VDD!"
"n6__bl0v" "6:BL0"
"n5__blb0v" "5:BLB0"
"n5__blb1v" "5:BLB1"
"n6__bl2v" "6:BL2"
"n28__wlv" "28:WL"
"n27__wlv" "27:WL"
"n26__wlv" "26:WL"
"n25__wlv" "25:WL"
"n12__vdd!v" "12:VDD!"
"n2__i0__net12v" "2:I0|net12"
"n4__i0__net12v" "4:I0|net12"
"n7__i0__net12v" "7:I0|net12"
"n5__i0__net18v" "5:I0|net18"
"n7__i0__net18v" "7:I0|net18"
"n9__i0__net18v" "9:I0|net18"
"n2__i1__net12v" "2:I1|net12"
"n4__i1__net12v" "4:I1|net12"
"n7__i1__net12v" "7:I1|net12"
"n5__i1__net18v" "5:I1|net18"
"n7__i1__net18v" "7:I1|net18"
"n9__i1__net18v" "9:I1|net18"
"n2__i2__net12v" "2:I2|net12"
"n4__i2__net12v" "4:I2|net12"
"n7__i2__net12v" "7:I2|net12"
"n5__i2__net18v" "5:I2|net18"
"n7__i2__net18v" "7:I2|net18"
"n9__i2__net18v" "9:I2|net18"
"n2__i3__net12v" "2:I3|net12"
"n4__i3__net12v" "4:I3|net12"
"n7__i3__net12v" "7:I3|net12"
"n5__i3__net18v" "5:I3|net18"
"n7__i3__net18v" "7:I3|net18"
"n9__i3__net18v" "9:I3|net18"
"n2__vdd!v" "2:VDD!"
"n17__vdd!v" "17:VDD!"
"n20__vdd!v" "20:VDD!"
"n23__vdd!v" "23:VDD!"
"wlv" "WL"
"bl0v" "BL0"
"blb0v" "BLB0"
"bl1v" "BL1"
"blb1v" "BLB1"
"bl2v" "BL2"
"blb2v" "BLB2"
"bl3v" "BL3"
"blb3v" "BLB3"
